134
	Energy:     193.0590699
C         -3.59904       -3.75051       -0.62104
C         -3.58698       -2.35240       -0.42272
C         -4.79403       -1.60681       -0.22501
C         -6.08469       -2.21046       -0.09808
C         -2.31620       -1.69445       -0.41289
C         -4.72168       -0.20065       -0.13097
C         -3.45678        0.45688       -0.27520
C         -2.25260       -0.28390       -0.34431
C         -3.35589        1.85723       -0.38457
C         -5.93120        0.50290        0.12093
C         -7.17225       -0.12116        0.25510
C         -7.27034       -1.49619        0.14502
H         -8.03969        0.50088        0.45477
C         -2.43482       -4.48250       -0.76979
C         -1.21370       -3.83566       -0.68756
C         -1.10667       -2.43833       -0.48983
C          0.15896       -1.77555       -0.37294
C          0.22840       -0.35975       -0.32841
C         -0.98714        0.38435       -0.36077
C         -2.14053        2.54685       -0.50055
C         -0.94254        1.80333       -0.41040
C         -8.57309       -2.25960        0.26702
H         -8.76607       -2.72830       -0.70503
H         -8.42625       -3.06366        0.99974
C         -9.80239       -1.44008        0.68900
H         -9.56979       -0.90560        1.61962
H        -10.01474       -0.67677       -0.07101
C        -11.06676       -2.28816        0.92402
H        -10.84134       -3.05899        1.67161
C        -12.18255       -1.40167        1.48519
H        -13.08175       -1.99073        1.69408
H        -11.87010       -0.92850        2.42224
H        -12.45293       -0.60863        0.77935
C        -11.55197       -2.98077       -0.34975
H        -11.73137       -2.25676       -1.15179
H        -10.82303       -3.71385       -0.70751
H        -12.48844       -3.51861       -0.16574
C         -2.24896        4.05472       -0.78682
H         -3.32006        4.29528       -0.83089
C         -1.71445        4.36983       -2.19352
H         -1.89622        5.41240       -2.46628
H         -0.63933        4.19563       -2.28903
H         -2.21313        3.74399       -2.94311
C         -1.64682        4.95730        0.31420
H         -1.50854        4.37737        1.23569
H         -0.65676        5.32440        0.01921
C         -2.51309        6.17094        0.68098
H         -3.50257        5.83654        1.01350
H         -2.04803        6.67525        1.53681
C         -2.67076        7.18523       -0.44031
H         -3.17855        8.08094       -0.06846
H         -1.69734        7.48958       -0.83794
H         -3.27459        6.78454       -1.25929
C          0.31162        2.43055       -0.37181
C          1.53094        1.75431       -0.26502
C          1.49535        0.33127       -0.25313
H          0.34023        3.50935       -0.40227
C          2.67178       -0.48498       -0.16044
C          2.62146       -1.87503       -0.16145
C          1.36997       -2.49791       -0.28226
C          4.79980       -1.30315        0.04762
C          3.95047       -2.38902       -0.01909
H          1.38298       -3.58122       -0.26693
H         -0.33645       -4.46204       -0.81533
H         -2.47768       -5.55433       -0.94287
N          4.01521       -0.18231       -0.05102
H          4.40610        0.74242       -0.02421
C          6.18539       -1.42337        0.19255
C          4.51071       -3.67954        0.06735
H          3.83518       -4.52666        0.02528
C          5.90517       -3.85526        0.21357
C          6.74890       -2.71241        0.27809
H          6.79400       -0.52747        0.24036
C          8.25489       -2.88804        0.44060
H          8.42994       -3.46452        1.35762
H          8.61646       -3.48398       -0.40657
C          9.11177       -1.61690        0.51521
H          8.79960       -0.99896        1.36552
H          8.98094       -1.01821       -0.39407
C         10.58894       -1.94789        0.66932
H         11.17921       -1.02731        0.71768
H         10.77033       -2.51639        1.58686
H         10.94940       -2.53785       -0.17930
C          6.50745       -5.25159        0.32816
H          7.29367       -5.34445       -0.43068
H          6.97685       -5.31623        1.31592
C          5.55683       -6.44794        0.15662
H          4.80008       -6.43826        0.95176
H          5.02320       -6.33725       -0.79637
C          6.27474       -7.81737        0.15232
H          7.05955       -7.79172       -0.61478
C          6.93422       -8.11491        1.50254
H          7.45584       -9.07645        1.48941
H          7.68387       -7.36024        1.75745
H          6.19180       -8.14240        2.30720
C          5.25888       -8.91387       -0.23302
H          4.48575       -8.99904        0.54048
H          4.74719       -8.62063       -1.15827
C          5.88738      -10.28092       -0.46449
H          6.28690      -10.70442        0.46111
H          5.13443      -10.97837       -0.84594
H          6.69638      -10.22219       -1.19931
C          2.81369        2.56476       -0.16741
H          3.30794        2.28312        0.77011
H          3.44806        2.28641       -1.01725
C          2.72051        4.10114       -0.16572
H          2.25457        4.44823       -1.09633
H          2.09037        4.43668        0.66745
C          4.10318        4.74527       -0.03110
H          4.57684        4.40901        0.89920
H          4.74345        4.41685       -0.85864
C          4.00364        6.27358       -0.03183
H          3.53463        6.60947       -0.96444
H          3.35365        6.58695        0.79223
C          5.38571        6.91891        0.10980
H          6.04118        6.50433       -0.66701
H          5.82402        6.63430        1.07490
C          5.37077        8.45795       -0.02203
H          4.88387        8.71684       -0.97130
C          6.82530        8.97192       -0.07028
H          7.37456        8.42194       -0.84473
H          7.32954        8.76333        0.88128
C          6.94435       10.45710       -0.38323
H          6.54961       11.07432        0.42859
H          7.99688       10.72722       -0.51792
H          6.41034       10.70902       -1.30476
C          4.58130        9.11473        1.11464
H          3.54086        8.77724        1.12701
H          5.02543        8.88397        2.08874
H          4.55210       10.20281        1.00428
H         -4.26243        2.45361       -0.43577
H         -5.93468        1.58097        0.25662
H         -6.18717       -3.29082       -0.16461
H         -4.52639       -4.31001       -0.68730
