69
	Energy:     100.1489796
C         -3.38909       -3.86790        0.04165
C         -3.38019       -2.46745       -0.07251
C         -2.19888       -1.66394       -0.13962
C         -0.95175       -2.33399       -0.09138
C         -0.97225       -3.74727        0.03231
C         -2.15020       -4.48969        0.09847
C         -2.23407       -0.22961       -0.25277
C          0.26656       -1.58381       -0.16337
C          0.21517       -0.16915       -0.27031
C         -1.02424        0.51553       -0.31850
C          1.42009        0.57836       -0.32544
C          2.66064       -0.06385       -0.28585
C          2.72975       -1.44183       -0.19551
C          1.55332       -2.18362       -0.13433
C         -3.44444        0.50523       -0.30147
C         -1.03983        1.94464       -0.43058
C          1.38509        1.97009       -0.42407
H          2.33136        2.50340       -0.44615
C          0.18024        2.67514       -0.50297
H          1.67218       -3.26079       -0.06468
H         -0.05103       -4.31956        0.08459
O         -1.99053       -5.84179        0.21940
H         -2.85693       -6.27088        0.28067
C         -3.48841        1.89511       -0.40939
H         -4.40424        0.00063       -0.25166
H         -4.34399       -1.97362       -0.11315
C          0.17332        4.19706       -0.61926
H         -0.53314        4.47642       -1.41193
H         -0.22873        4.57437        0.33093
C          1.48971        4.95426       -0.91297
H          2.26964        4.64006       -0.21005
C          1.27546        6.45785       -0.69883
H          0.96788        6.66448        0.33175
H          2.20028        7.01340       -0.88743
H          0.50194        6.84929       -1.36856
C          1.97934        4.71911       -2.34545
H          2.91622        5.25802       -2.52401
H          2.16779        3.66102       -2.54599
H          1.24515        5.07213       -3.07784
C         -4.81094        2.62228       -0.44035
H         -4.70164        3.55585       -1.00648
H         -5.53257        2.01376       -0.99779
C         -5.32544        2.92003        0.97189
H         -5.48898        1.97884        1.51341
H         -4.54728        3.46136        1.52664
C         -6.61747        3.75811        0.98475
H         -6.44682        4.67791        0.41115
C         -6.96227        4.15952        2.42103
H         -6.14515        4.73252        2.87196
H         -7.86016        4.78619        2.44540
H         -7.14565        3.27945        3.04687
C         -7.79987        3.01571        0.36002
H         -7.63167        2.81825       -0.70276
H         -7.97739        2.05837        0.86163
H         -8.71595        3.61153        0.43667
C         -4.67137       -4.67179        0.10050
H         -4.64357       -5.40307       -0.71801
H         -4.67242       -5.23108        1.04519
C         -5.99615       -3.90541        0.00194
H         -6.07880       -3.18504        0.82446
H         -6.03822       -3.34060       -0.93699
C         -7.18977       -4.84753        0.05746
H         -7.16442       -5.56215       -0.77133
H         -7.20320       -5.40924        0.99683
H         -8.12299       -4.27980       -0.01234
C         -2.28849        2.59569       -0.46099
H         -2.34733        3.67938       -0.52272
H          3.58638        0.50517       -0.33196
H          3.69344       -1.94307       -0.17233
